Title: Constant values
Date: Mon Feb  6 05:26:21 UTC 2023
Plotname: constants
Flags: real
No. Variables: 2
No. Points: 181
Variables:
	0	v(v_cm)	voltage
	1	gbw_vec	frequency
Values:
 0	-6.000000000000001e-01
	-6.000000000000001e-01

 1	-5.900000000000001e-01
	-5.900000000000001e-01

 2	-5.800000000000001e-01
	-5.800000000000001e-01

 3	-5.700000000000001e-01
	-5.700000000000001e-01

 4	-5.600000000000001e-01
	-5.600000000000001e-01

 5	-5.500000000000000e-01
	-5.500000000000000e-01

 6	-5.400000000000000e-01
	-5.400000000000000e-01

 7	-5.300000000000000e-01
	-5.300000000000000e-01

 8	-5.200000000000000e-01
	-5.200000000000000e-01

 9	-5.100000000000000e-01
	-5.100000000000000e-01

 10	-5.000000000000000e-01
	-5.000000000000000e-01

 11	-4.900000000000000e-01
	-4.900000000000000e-01

 12	-4.800000000000000e-01
	-4.800000000000000e-01

 13	-4.700000000000000e-01
	-4.700000000000000e-01

 14	-4.600000000000000e-01
	-4.600000000000000e-01

 15	-4.500000000000000e-01
	-4.500000000000000e-01

 16	-4.399999999999999e-01
	-4.399999999999999e-01

 17	-4.299999999999999e-01
	-4.299999999999999e-01

 18	-4.199999999999999e-01
	-4.199999999999999e-01

 19	-4.099999999999999e-01
	-4.099999999999999e-01

 20	-3.999999999999999e-01
	-3.999999999999999e-01

 21	-3.899999999999999e-01
	-3.899999999999999e-01

 22	-3.799999999999999e-01
	-3.799999999999999e-01

 23	-3.699999999999999e-01
	-3.699999999999999e-01

 24	-3.599999999999999e-01
	-3.599999999999999e-01

 25	-3.499999999999999e-01
	-3.499999999999999e-01

 26	-3.399999999999999e-01
	-3.399999999999999e-01

 27	-3.299999999999998e-01
	-3.299999999999998e-01

 28	-3.199999999999998e-01
	-3.199999999999998e-01

 29	-3.099999999999998e-01
	-3.099999999999998e-01

 30	-2.999999999999998e-01
	-2.999999999999998e-01

 31	-2.899999999999998e-01
	-2.899999999999998e-01

 32	-2.799999999999998e-01
	-2.799999999999998e-01

 33	-2.699999999999998e-01
	-2.699999999999998e-01

 34	-2.599999999999998e-01
	-2.599999999999998e-01

 35	-2.499999999999998e-01
	-2.499999999999998e-01

 36	-2.399999999999998e-01
	-2.399999999999998e-01

 37	-2.299999999999998e-01
	-2.299999999999998e-01

 38	-2.199999999999998e-01
	-2.199999999999998e-01

 39	-2.099999999999997e-01
	-2.099999999999997e-01

 40	-1.999999999999997e-01
	-1.999999999999997e-01

 41	-1.899999999999997e-01
	-1.899999999999997e-01

 42	-1.799999999999997e-01
	-1.799999999999997e-01

 43	-1.699999999999997e-01
	-1.699999999999997e-01

 44	-1.599999999999997e-01
	-1.599999999999997e-01

 45	-1.499999999999997e-01
	-1.499999999999997e-01

 46	-1.399999999999997e-01
	-1.399999999999997e-01

 47	-1.299999999999997e-01
	-1.299999999999997e-01

 48	-1.199999999999997e-01
	-1.199999999999997e-01

 49	-1.099999999999997e-01
	-1.099999999999997e-01

 50	-9.999999999999969e-02
	-9.999999999999969e-02

 51	-8.999999999999969e-02
	-8.999999999999969e-02

 52	-7.999999999999970e-02
	-7.999999999999970e-02

 53	-6.999999999999970e-02
	-6.999999999999970e-02

 54	-5.999999999999970e-02
	-5.999999999999970e-02

 55	-4.999999999999970e-02
	-4.999999999999970e-02

 56	-3.999999999999970e-02
	-3.999999999999970e-02

 57	-2.999999999999969e-02
	-2.999999999999969e-02

 58	-1.999999999999969e-02
	-1.999999999999969e-02

 59	-9.999999999999691e-03
	-9.999999999999691e-03

 60	3.087807787238717e-16
	3.087807787238717e-16

 61	1.000000000000031e-02
	1.000000000000031e-02

 62	2.000000000000031e-02
	2.000000000000031e-02

 63	3.000000000000031e-02
	3.000000000000031e-02

 64	4.000000000000031e-02
	4.000000000000031e-02

 65	5.000000000000032e-02
	5.000000000000032e-02

 66	6.000000000000032e-02
	6.000000000000032e-02

 67	7.000000000000031e-02
	7.000000000000031e-02

 68	8.000000000000031e-02
	8.000000000000031e-02

 69	9.000000000000030e-02
	9.000000000000030e-02

 70	1.000000000000003e-01
	1.000000000000003e-01

 71	1.100000000000003e-01
	1.100000000000003e-01

 72	1.200000000000003e-01
	1.200000000000003e-01

 73	1.300000000000003e-01
	1.300000000000003e-01

 74	1.400000000000003e-01
	1.400000000000003e-01

 75	1.500000000000003e-01
	1.500000000000003e-01

 76	1.600000000000003e-01
	1.600000000000003e-01

 77	1.700000000000003e-01
	1.700000000000003e-01

 78	1.800000000000003e-01
	1.800000000000003e-01

 79	1.900000000000003e-01
	1.900000000000003e-01

 80	2.000000000000003e-01
	2.000000000000003e-01

 81	2.100000000000004e-01
	2.100000000000004e-01

 82	2.200000000000004e-01
	2.200000000000004e-01

 83	2.300000000000004e-01
	2.300000000000004e-01

 84	2.400000000000004e-01
	2.400000000000004e-01

 85	2.500000000000004e-01
	2.500000000000004e-01

 86	2.600000000000004e-01
	2.600000000000004e-01

 87	2.700000000000004e-01
	2.700000000000004e-01

 88	2.800000000000004e-01
	2.800000000000004e-01

 89	2.900000000000004e-01
	2.900000000000004e-01

 90	3.000000000000004e-01
	3.000000000000004e-01

 91	3.100000000000004e-01
	3.100000000000004e-01

 92	3.200000000000005e-01
	3.200000000000005e-01

 93	3.300000000000005e-01
	3.300000000000005e-01

 94	3.400000000000005e-01
	3.400000000000005e-01

 95	3.500000000000005e-01
	3.500000000000005e-01

 96	3.600000000000005e-01
	3.600000000000005e-01

 97	3.700000000000005e-01
	3.700000000000005e-01

 98	3.800000000000005e-01
	3.800000000000005e-01

 99	3.900000000000005e-01
	3.900000000000005e-01

 100	4.000000000000005e-01
	4.000000000000005e-01

 101	4.100000000000005e-01
	4.100000000000005e-01

 102	4.200000000000005e-01
	4.200000000000005e-01

 103	4.300000000000005e-01
	4.300000000000005e-01

 104	4.400000000000006e-01
	4.400000000000006e-01

 105	4.500000000000006e-01
	4.500000000000006e-01

 106	4.600000000000006e-01
	4.600000000000006e-01

 107	4.700000000000006e-01
	4.700000000000006e-01

 108	4.800000000000006e-01
	4.800000000000006e-01

 109	4.900000000000006e-01
	4.900000000000006e-01

 110	5.000000000000006e-01
	5.000000000000006e-01

 111	5.100000000000006e-01
	5.100000000000006e-01

 112	5.200000000000006e-01
	5.200000000000006e-01

 113	5.300000000000006e-01
	5.300000000000006e-01

 114	5.400000000000006e-01
	5.400000000000006e-01

 115	5.500000000000006e-01
	5.500000000000006e-01

 116	5.600000000000006e-01
	5.600000000000006e-01

 117	5.700000000000006e-01
	5.700000000000006e-01

 118	5.800000000000006e-01
	5.800000000000006e-01

 119	5.900000000000006e-01
	5.900000000000006e-01

 120	6.000000000000006e-01
	6.000000000000006e-01

 121	6.100000000000007e-01
	6.100000000000007e-01

 122	6.200000000000007e-01
	6.200000000000007e-01

 123	6.300000000000007e-01
	6.300000000000007e-01

 124	6.400000000000007e-01
	6.400000000000007e-01

 125	6.500000000000007e-01
	6.500000000000007e-01

 126	6.600000000000007e-01
	6.600000000000007e-01

 127	6.700000000000007e-01
	6.700000000000007e-01

 128	6.800000000000007e-01
	6.800000000000007e-01

 129	6.900000000000007e-01
	6.900000000000007e-01

 130	7.000000000000007e-01
	7.000000000000007e-01

 131	7.100000000000007e-01
	7.100000000000007e-01

 132	7.200000000000008e-01
	7.200000000000008e-01

 133	7.300000000000008e-01
	7.300000000000008e-01

 134	7.400000000000008e-01
	7.400000000000008e-01

 135	7.500000000000008e-01
	7.500000000000008e-01

 136	7.600000000000008e-01
	7.600000000000008e-01

 137	7.700000000000008e-01
	7.700000000000008e-01

 138	7.800000000000008e-01
	7.800000000000008e-01

 139	7.900000000000008e-01
	7.900000000000008e-01

 140	8.000000000000008e-01
	8.000000000000008e-01

 141	8.100000000000008e-01
	8.100000000000008e-01

 142	8.200000000000008e-01
	8.200000000000008e-01

 143	8.300000000000008e-01
	8.300000000000008e-01

 144	8.400000000000009e-01
	8.400000000000009e-01

 145	8.500000000000009e-01
	8.500000000000009e-01

 146	8.600000000000009e-01
	8.600000000000009e-01

 147	8.700000000000009e-01
	8.700000000000009e-01

 148	8.800000000000009e-01
	8.800000000000009e-01

 149	8.900000000000009e-01
	8.900000000000009e-01

 150	9.000000000000009e-01
	9.000000000000009e-01

 151	9.100000000000009e-01
	9.100000000000009e-01

 152	9.200000000000009e-01
	9.200000000000009e-01

 153	9.300000000000009e-01
	9.300000000000009e-01

 154	9.400000000000009e-01
	9.400000000000009e-01

 155	9.500000000000010e-01
	9.500000000000010e-01

 156	9.600000000000010e-01
	9.600000000000010e-01

 157	9.700000000000010e-01
	9.700000000000010e-01

 158	9.800000000000010e-01
	9.800000000000010e-01

 159	9.900000000000010e-01
	9.900000000000010e-01

 160	1.000000000000001e+00
	1.000000000000001e+00

 161	1.010000000000001e+00
	1.010000000000001e+00

 162	1.020000000000001e+00
	1.020000000000001e+00

 163	1.030000000000001e+00
	1.030000000000001e+00

 164	1.040000000000001e+00
	1.040000000000001e+00

 165	1.050000000000001e+00
	1.050000000000001e+00

 166	1.060000000000001e+00
	1.060000000000001e+00

 167	1.070000000000001e+00
	1.070000000000001e+00

 168	1.080000000000001e+00
	1.080000000000001e+00

 169	1.090000000000001e+00
	1.090000000000001e+00

 170	1.100000000000001e+00
	1.100000000000001e+00

 171	1.110000000000001e+00
	1.110000000000001e+00

 172	1.120000000000001e+00
	1.120000000000001e+00

 173	1.130000000000001e+00
	1.130000000000001e+00

 174	1.140000000000001e+00
	1.140000000000001e+00

 175	1.150000000000001e+00
	1.150000000000001e+00

 176	1.160000000000001e+00
	1.160000000000001e+00

 177	1.170000000000001e+00
	1.170000000000001e+00

 178	1.180000000000001e+00
	1.180000000000001e+00

 179	1.190000000000001e+00
	1.190000000000001e+00

 180	1.200000000000001e+00
	1.200000000000001e+00

